<?xml version="1.0" ?>
<VTKFile byte_order="LittleEndian" type="PolyData" version="0.1">
	<PolyData>
		<Piece NumberOfPoints="20" NumberOfVerts="20">
			<Points>
				<DataArray NumberOfComponents="3" format="ascii" type="Float32">2.0 9.0 9.0 4.0 1.0 9.0 4.0 1.0 5.0 2.0 8.0 0.0 9.0 8.0 4.0 1.0 4.0 6.0 7.0 3.0 4.0 2.0 5.0 3.0 1.0 6.0 6.0 8.0 1.0 0.0 5.0 5.0 1.0 4.0 5.0 7.0 3.0 3.0 5.0 9.0 0.0 9.0 6.0 3.0 8.0 4.0 5.0 7.0 9.0 9.0 4.0 1.0 4.0 7.0 1.0 7.0 8.0 9.0 1.0 6.0</DataArray>
			</Points>
			<PointData>
				<DataArray Name="d0" format="ascii" type="Float32">99.0 2.0 60.0 75.0 71.0 34.0 1.0 49.0 4.0 36.0 47.0 58.0 65.0 72.0 4.0 27.0 52.0 37.0 95.0 17.0</DataArray>
				<DataArray Name="d1" format="ascii" type="Float32">54.0 40.0 77.0 18.0 84.0 91.0 61.0 92.0 19.0 42.0 50.0 25.0 11.0 80.0 59.0 56.0 32.0 8.0 88.0 76.0</DataArray>
			</PointData>
			<Verts>
				<DataArray Name="connectivity" format="ascii" type="Int32">0 1 2 3 4 5 6 7 8 9 10 11 12 13 14 15 16 17 18 19 </DataArray>
				<DataArray Name="offsets" format="ascii" type="Int32">1 2 3 4 5 6 7 8 9 10 11 12 13 14 15 16 17 18 19 20 </DataArray>
			</Verts>
		</Piece>
	</PolyData>
</VTKFile>
